# vtk DataFile Version 3.0
3D Laplacian Solution
ASCII
DATASET STRUCTURED_POINTS
DIMENSIONS 50 50 50
ORIGIN 0 0 0
SPACING 0.0204082 0.0204082 0.0204082
POINT_DATA 125000
SCALARS solution float 1
LOOKUP_TABLE default
0
0.000416493
0.00166597
0.00374844
0.00666389
0.0104123
0.0149938
0.0204082
0.0266556
0.0337359
0.0416493
0.0503957
0.059975
0.0703873
0.0816327
0.093711
0.106622
0.120367
0.134944
0.150354
0.166597
0.183673
0.201583
0.220325
0.2399
0.260308
0.281549
0.303623
0.326531
0.350271
0.374844
0.40025
0.426489
0.453561
0.481466
0.510204
0.539775
0.570179
0.601416
0.633486
0.666389
0.700125
0.734694
0.770096
0.806331
0.843399
0.881299
0.920033
0.9596
1
0.000416493
0.000832986
0.00208247
0.00416493
0.00708038
0.0108288
0.0154102
0.0208247
0.0270721
0.0341524
0.0420658
0.0508122
0.0603915
0.0708038
0.0820491
0.0941274
0.107039
0.120783
0.13536
0.150771
0.167014
0.18409
0.201999
0.220741
0.240317
0.260725
0.281966
0.30404
0.326947
0.350687
0.37526
0.400666
0.426905
0.453978
0.481883
0.510621
0.540192
0.570596
0.601833
0.633903
0.666805
0.700541
0.73511
0.770512
0.806747
0.843815
0.881716
0.92045
0.960017
1.00042
0.00166597
0.00208247
0.00333195
0.00541441
0.00832986
0.0120783
0.0166597
0.0220741
0.0283215
0.0354019
0.0433153
0.0520616
0.061641
0.0720533
0.0832986
0.0953769
0.108288
0.122032
0.13661
0.15202
0.168263
0.185339
0.203249
0.221991
0.241566
0.261974
0.283215
0.305289
0.328197
0.351937
0.37651
0.401916
0.428155
0.455227
0.483132
0.51187
0.541441
0.571845
0.603082
0.635152
0.668055
0.701791
0.73636
0.771762
0.807997
0.845065
0.882965
0.921699
0.961266
1.00167
0.00374844
0.00416493
0.00541441
0.00749688
0.0104123
0.0141608
0.0187422
0.0241566
0.030404
0.0374844
0.0453978
0.0541441
0.0637234
0.0741358
0.0853811
0.0974594
0.110371
0.124115
0.138692
0.154102
0.170346
0.187422
0.205331
0.224073
0.243648
0.264057
0.285298
0.307372
0.330279
0.354019
0.378592
0.403998
0.430237
0.457309
0.485214
0.513953
0.543524
0.573928
0.605165
0.637234
0.670137
0.703873
0.738442
0.773844
0.810079
0.847147
0.885048
0.923782
0.963349
1.00375
0.00666389
0.00708038
0.00832986
0.0104123
0.0133278
0.0170762
0.0216576
0.0270721
0.0333195
0.0403998
0.0483132
0.0570596
0.0666389
0.0770512
0.0882965
0.100375
0.113286
0.12703
0.141608
0.157018
0.173261
0.190337
0.208247
0.226989
0.246564
0.266972
0.288213
0.310287
0.333195
0.356935
0.381508
0.406914
0.433153
0.460225
0.48813
0.516868
0.546439
0.576843
0.60808
0.64015
0.673053
0.706789
0.741358
0.77676
0.812995
0.850062
0.887963
0.926697
0.966264
1.00666
0.0104123
0.0108288
0.0120783
0.0141608
0.0170762
0.0208247
0.0254061
0.0308205
0.0370679
0.0441483
0.0520616
0.060808
0.0703873
0.0807997
0.092045
0.104123
0.117035
0.130779
0.145356
0.160766
0.17701
0.194086
0.211995
0.230737
0.250312
0.270721
0.291962
0.314036
0.336943
0.360683
0.385256
0.410662
0.436901
0.463973
0.491878
0.520616
0.550187
0.580591
0.611828
0.643898
0.676801
0.710537
0.745106
0.780508
0.816743
0.853811
0.891712
0.930446
0.970012
1.01041
0.0149938
0.0154102
0.0166597
0.0187422
0.0216576
0.0254061
0.0299875
0.0354019
0.0416493
0.0487297
0.0566431
0.0653894
0.0749688
0.0853811
0.0966264
0.108705
0.121616
0.13536
0.149938
0.165348
0.181591
0.198667
0.216576
0.235319
0.254894
0.275302
0.296543
0.318617
0.341524
0.365264
0.389838
0.415244
0.441483
0.468555
0.49646
0.525198
0.554769
0.585173
0.61641
0.64848
0.681383
0.715119
0.749688
0.78509
0.821324
0.858392
0.896293
0.935027
0.974594
1.01499
0.0204082
0.0208247
0.0220741
0.0241566
0.0270721
0.0308205
0.0354019
0.0408163
0.0470637
0.0541441
0.0620575
0.0708038
0.0803832
0.0907955
0.102041
0.114119
0.12703
0.140775
0.155352
0.170762
0.187005
0.204082
0.221991
0.240733
0.260308
0.280716
0.301958
0.324032
0.346939
0.370679
0.395252
0.420658
0.446897
0.473969
0.501874
0.530612
0.560183
0.590587
0.621824
0.653894
0.686797
0.720533
0.755102
0.790504
0.826739
0.863807
0.901708
0.940441
0.980008
1.02041
0.0266556
0.0270721
0.0283215
0.030404
0.0333195
0.0370679
0.0416493
0.0470637
0.0533111
0.0603915
0.0683049
0.0770512
0.0866306
0.0970429
0.108288
0.120367
0.133278
0.147022
0.161599
0.17701
0.193253
0.210329
0.228238
0.24698
0.266556
0.286964
0.308205
0.330279
0.353186
0.376926
0.401499
0.426905
0.453145
0.480217
0.508122
0.53686
0.566431
0.596835
0.628072
0.660142
0.693045
0.726781
0.761349
0.796751
0.832986
0.870054
0.907955
0.946689
0.986256
1.02666
0.0337359
0.0341524
0.0354019
0.0374844
0.0403998
0.0441483
0.0487297
0.0541441
0.0603915
0.0674719
0.0753853
0.0841316
0.093711
0.104123
0.115369
0.127447
0.140358
0.154102
0.16868
0.18409
0.200333
0.217409
0.235319
0.254061
0.273636
0.294044
0.315285
0.337359
0.360267
0.384007
0.40858
0.433986
0.460225
0.487297
0.515202
0.54394
0.573511
0.603915
0.635152
0.667222
0.700125
0.733861
0.76843
0.803832
0.840067
0.877135
0.915035
0.953769
0.993336
1.03374
0.0416493
0.0420658
0.0433153
0.0453978
0.0483132
0.0520616
0.0566431
0.0620575
0.0683049
0.0753853
0.0832986
0.092045
0.101624
0.112037
0.123282
0.13536
0.148272
0.162016
0.176593
0.192003
0.208247
0.225323
0.243232
0.261974
0.281549
0.301958
0.323199
0.345273
0.36818
0.39192
0.416493
0.441899
0.468138
0.49521
0.523115
0.551853
0.581424
0.611828
0.643065
0.675135
0.708038
0.741774
0.776343
0.811745
0.84798
0.885048
0.922949
0.961683
1.00125
1.04165
0.0503957
0.0508122
0.0520616
0.0541441
0.0570596
0.060808
0.0653894
0.0708038
0.0770512
0.0841316
0.092045
0.100791
0.110371
0.120783
0.132028
0.144107
0.157018
0.170762
0.185339
0.20075
0.216993
0.234069
0.251978
0.270721
0.290296
0.310704
0.331945
0.354019
0.376926
0.400666
0.425239
0.450646
0.476885
0.503957
0.531862
0.5606
0.590171
0.620575
0.651812
0.683882
0.716785
0.750521
0.78509
0.820491
0.856726
0.893794
0.931695
0.970429
1.01
1.0504
0.059975
0.0603915
0.061641
0.0637234
0.0666389
0.0703873
0.0749688
0.0803832
0.0866306
0.093711
0.101624
0.110371
0.11995
0.130362
0.141608
0.153686
0.166597
0.180342
0.194919
0.210329
0.226572
0.243648
0.261558
0.2803
0.299875
0.320283
0.341524
0.363599
0.386506
0.410246
0.434819
0.460225
0.486464
0.513536
0.541441
0.570179
0.59975
0.630154
0.661391
0.693461
0.726364
0.7601
0.794669
0.830071
0.866306
0.903374
0.941274
0.980008
1.01958
1.05998
0.0703873
0.0708038
0.0720533
0.0741358
0.0770512
0.0807997
0.0853811
0.0907955
0.0970429
0.104123
0.112037
0.120783
0.130362
0.140775
0.15202
0.164098
0.17701
0.190754
0.205331
0.220741
0.236985
0.254061
0.27197
0.290712
0.310287
0.330696
0.351937
0.374011
0.396918
0.420658
0.445231
0.470637
0.496876
0.523948
0.551853
0.580591
0.610162
0.640566
0.671803
0.703873
0.736776
0.770512
0.805081
0.840483
0.876718
0.913786
0.951687
0.990421
1.02999
1.07039
0.0816327
0.0820491
0.0832986
0.0853811
0.0882965
0.092045
0.0966264
0.102041
0.108288
0.115369
0.123282
0.132028
0.141608
0.15202
0.163265
0.175344
0.188255
0.201999
0.216576
0.231987
0.24823
0.265306
0.283215
0.301958
0.321533
0.341941
0.363182
0.385256
0.408163
0.431903
0.456476
0.481883
0.508122
0.535194
0.563099
0.591837
0.621408
0.651812
0.683049
0.715119
0.748022
0.781758
0.816327
0.851728
0.887963
0.925031
0.962932
1.00167
1.04123
1.08163
0.093711
0.0941274
0.0953769
0.0974594
0.100375
0.104123
0.108705
0.114119
0.120367
0.127447
0.13536
0.144107
0.153686
0.164098
0.175344
0.187422
0.200333
0.214077
0.228655
0.244065
0.260308
0.277384
0.295294
0.314036
0.333611
0.354019
0.37526
0.397334
0.420242
0.443982
0.468555
0.493961
0.5202
0.547272
0.575177
0.603915
0.633486
0.66389
0.695127
0.727197
0.7601
0.793836
0.828405
0.863807
0.900042
0.93711
0.97501
1.01374
1.05331
1.09371
0.106622
0.107039
0.108288
0.110371
0.113286
0.117035
0.121616
0.12703
0.133278
0.140358
0.148272
0.157018
0.166597
0.17701
0.188255
0.200333
0.213244
0.226989
0.241566
0.256976
0.273219
0.290296
0.308205
0.326947
0.346522
0.36693
0.388172
0.410246
0.433153
0.456893
0.481466
0.506872
0.533111
0.560183
0.588088
0.616826
0.646397
0.676801
0.708038
0.740108
0.773011
0.806747
0.841316
0.876718
0.912953
0.950021
0.987922
1.02666
1.06622
1.10662
0.120367
0.120783
0.122032
0.124115
0.12703
0.130779
0.13536
0.140775
0.147022
0.154102
0.162016
0.170762
0.180342
0.190754
0.201999
0.214077
0.226989
0.240733
0.25531
0.270721
0.286964
0.30404
0.321949
0.340691
0.360267
0.380675
0.401916
0.42399
0.446897
0.470637
0.49521
0.520616
0.546855
0.573928
0.601833
0.630571
0.660142
0.690546
0.721783
0.753853
0.786756
0.820491
0.85506
0.890462
0.926697
0.963765
1.00167
1.0404
1.07997
1.12037
0.134944
0.13536
0.13661
0.138692
0.141608
0.145356
0.149938
0.155352
0.161599
0.16868
0.176593
0.185339
0.194919
0.205331
0.216576
0.228655
0.241566
0.25531
0.269888
0.285298
0.301541
0.318617
0.336526
0.355269
0.374844
0.395252
0.416493
0.438567
0.461474
0.485214
0.509788
0.535194
0.561433
0.588505
0.61641
0.645148
0.674719
0.705123
0.73636
0.76843
0.801333
0.835069
0.869638
0.90504
0.941274
0.978342
1.01624
1.05498
1.09454
1.13494
0.150354
0.150771
0.15202
0.154102
0.157018
0.160766
0.165348
0.170762
0.17701
0.18409
0.192003
0.20075
0.210329
0.220741
0.231987
0.244065
0.256976
0.270721
0.285298
0.300708
0.316951
0.334027
0.351937
0.370679
0.390254
0.410662
0.431903
0.453978
0.476885
0.500625
0.525198
0.550604
0.576843
0.603915
0.63182
0.660558
0.690129
0.720533
0.75177
0.78384
0.816743
0.850479
0.885048
0.92045
0.956685
0.993753
1.03165
1.07039
1.10995
1.15035
0.166597
0.167014
0.168263
0.170346
0.173261
0.17701
0.181591
0.187005
0.193253
0.200333
0.208247
0.216993
0.226572
0.236985
0.24823
0.260308
0.273219
0.286964
0.301541
0.316951
0.333195
0.350271
0.36818
0.386922
0.406497
0.426905
0.448147
0.470221
0.493128
0.516868
0.541441
0.566847
0.593086
0.620158
0.648063
0.676801
0.706372
0.736776
0.768013
0.800083
0.832986
0.866722
0.901291
0.936693
0.972928
1.01
1.0479
1.08663
1.1262
1.1666
0.183673
0.18409
0.185339
0.187422
0.190337
0.194086
0.198667
0.204082
0.210329
0.217409
0.225323
0.234069
0.243648
0.254061
0.265306
0.277384
0.290296
0.30404
0.318617
0.334027
0.350271
0.367347
0.385256
0.403998
0.423574
0.443982
0.465223
0.487297
0.510204
0.533944
0.558517
0.583923
0.610162
0.637234
0.66514
0.693878
0.723449
0.753853
0.78509
0.81716
0.850062
0.883798
0.918367
0.953769
0.990004
1.02707
1.06497
1.10371
1.14327
1.18367
0.201583
0.201999
0.203249
0.205331
0.208247
0.211995
0.216576
0.221991
0.228238
0.235319
0.243232
0.251978
0.261558
0.27197
0.283215
0.295294
0.308205
0.321949
0.336526
0.351937
0.36818
0.385256
0.403165
0.421908
0.441483
0.461891
0.483132
0.505206
0.528113
0.551853
0.576426
0.601833
0.628072
0.655144
0.683049
0.711787
0.741358
0.771762
0.802999
0.835069
0.867972
0.901708
0.936277
0.971678
1.00791
1.04498
1.08288
1.12162
1.16118
1.20158
0.220325
0.220741
0.221991
0.224073
0.226989
0.230737
0.235319
0.240733
0.24698
0.254061
0.261974
0.270721
0.2803
0.290712
0.301958
0.314036
0.326947
0.340691
0.355269
0.370679
0.386922
0.403998
0.421908
0.44065
0.460225
0.480633
0.501874
0.523948
0.546855
0.570596
0.595169
0.620575
0.646814
0.673886
0.701791
0.730529
0.7601
0.790504
0.821741
0.853811
0.886714
0.92045
0.955019
0.990421
1.02666
1.06372
1.10162
1.14036
1.17993
1.22032
0.2399
0.240317
0.241566
0.243648
0.246564
0.250312
0.254894
0.260308
0.266556
0.273636
0.281549
0.290296
0.299875
0.310287
0.321533
0.333611
0.346522
0.360267
0.374844
0.390254
0.406497
0.423574
0.441483
0.460225
0.4798
0.500208
0.521449
0.543524
0.566431
0.590171
0.614744
0.64015
0.666389
0.693461
0.721366
0.750104
0.779675
0.810079
0.841316
0.873386
0.906289
0.940025
0.974594
1.01
1.04623
1.0833
1.1212
1.15993
1.1995
1.2399
0.260308
0.260725
0.261974
0.264057
0.266972
0.270721
0.275302
0.280716
0.286964
0.294044
0.301958
0.310704
0.320283
0.330696
0.341941
0.354019
0.36693
0.380675
0.395252
0.410662
0.426905
0.443982
0.461891
0.480633
0.500208
0.520616
0.541858
0.563932
0.586839
0.610579
0.635152
0.660558
0.686797
0.713869
0.741774
0.770512
0.800083
0.830487
0.861724
0.893794
0.926697
0.960433
0.995002
1.0304
1.06664
1.10371
1.14161
1.18034
1.21991
1.26031
0.281549
0.281966
0.283215
0.285298
0.288213
0.291962
0.296543
0.301958
0.308205
0.315285
0.323199
0.331945
0.341524
0.351937
0.363182
0.37526
0.388172
0.401916
0.416493
0.431903
0.448147
0.465223
0.483132
0.501874
0.521449
0.541858
0.563099
0.585173
0.60808
0.63182
0.656393
0.681799
0.708038
0.73511
0.763015
0.791753
0.821324
0.851728
0.882965
0.915035
0.947938
0.981674
1.01624
1.05165
1.08788
1.12495
1.16285
1.20158
1.24115
1.28155
0.303623
0.30404
0.305289
0.307372
0.310287
0.314036
0.318617
0.324032
0.330279
0.337359
0.345273
0.354019
0.363599
0.374011
0.385256
0.397334
0.410246
0.42399
0.438567
0.453978
0.470221
0.487297
0.505206
0.523948
0.543524
0.563932
0.585173
0.607247
0.630154
0.653894
0.678467
0.703873
0.730112
0.757185
0.78509
0.813828
0.843399
0.873803
0.90504
0.93711
0.970012
1.00375
1.03832
1.07372
1.10995
1.14702
1.18492
1.22366
1.26322
1.30362
0.326531
0.326947
0.328197
0.330279
0.333195
0.336943
0.341524
0.346939
0.353186
0.360267
0.36818
0.376926
0.386506
0.396918
0.408163
0.420242
0.433153
0.446897
0.461474
0.476885
0.493128
0.510204
0.528113
0.546855
0.566431
0.586839
0.60808
0.630154
0.653061
0.676801
0.701374
0.726781
0.75302
0.780092
0.807997
0.836735
0.866306
0.89671
0.927947
0.960017
0.99292
1.02666
1.06122
1.09663
1.13286
1.16993
1.20783
1.24656
1.28613
1.32653
0.350271
0.350687
0.351937
0.354019
0.356935
0.360683
0.365264
0.370679
0.376926
0.384007
0.39192
0.400666
0.410246
0.420658
0.431903
0.443982
0.456893
0.470637
0.485214
0.500625
0.516868
0.533944
0.551853
0.570596
0.590171
0.610579
0.63182
0.653894
0.676801
0.700541
0.725115
0.750521
0.77676
0.803832
0.831737
0.860475
0.890046
0.92045
0.951687
0.983757
1.01666
1.0504
1.08496
1.12037
1.1566
1.19367
1.23157
1.2703
1.30987
1.35027
0.374844
0.37526
0.37651
0.378592
0.381508
0.385256
0.389838
0.395252
0.401499
0.40858
0.416493
0.425239
0.434819
0.445231
0.456476
0.468555
0.481466
0.49521
0.509788
0.525198
0.541441
0.558517
0.576426
0.595169
0.614744
0.635152
0.656393
0.678467
0.701374
0.725115
0.749688
0.775094
0.801333
0.828405
0.85631
0.885048
0.914619
0.945023
0.97626
1.00833
1.04123
1.07497
1.10954
1.14494
1.18117
1.21824
1.25614
1.29488
1.33444
1.37484
0.40025
0.400666
0.401916
0.403998
0.406914
0.410662
0.415244
0.420658
0.426905
0.433986
0.441899
0.450646
0.460225
0.470637
0.481883
0.493961
0.506872
0.520616
0.535194
0.550604
0.566847
0.583923
0.601833
0.620575
0.64015
0.660558
0.681799
0.703873
0.726781
0.750521
0.775094
0.8005
0.826739
0.853811
0.881716
0.910454
0.940025
0.970429
1.00167
1.03374
1.06664
1.10037
1.13494
1.17035
1.20658
1.24365
1.28155
1.32028
1.35985
1.40025
0.426489
0.426905
0.428155
0.430237
0.433153
0.436901
0.441483
0.446897
0.453145
0.460225
0.468138
0.476885
0.486464
0.496876
0.508122
0.5202
0.533111
0.546855
0.561433
0.576843
0.593086
0.610162
0.628072
0.646814
0.666389
0.686797
0.708038
0.730112
0.75302
0.77676
0.801333
0.826739
0.852978
0.88005
0.907955
0.936693
0.966264
0.996668
1.02791
1.05998
1.09288
1.12661
1.16118
1.19658
1.23282
1.26989
1.30779
1.34652
1.38609
1.42649
0.453561
0.453978
0.455227
0.457309
0.460225
0.463973
0.468555
0.473969
0.480217
0.487297
0.49521
0.503957
0.513536
0.523948
0.535194
0.547272
0.560183
0.573928
0.588505
0.603915
0.620158
0.637234
0.655144
0.673886
0.693461
0.713869
0.73511
0.757185
0.780092
0.803832
0.828405
0.853811
0.88005
0.907122
0.935027
0.963765
0.993336
1.02374
1.05498
1.08705
1.11995
1.15369
1.18825
1.22366
1.25989
1.29696
1.33486
1.37359
1.41316
1.45356
0.481466
0.481883
0.483132
0.485214
0.48813
0.491878
0.49646
0.501874
0.508122
0.515202
0.523115
0.531862
0.541441
0.551853
0.563099
0.575177
0.588088
0.601833
0.61641
0.63182
0.648063
0.66514
0.683049
0.701791
0.721366
0.741774
0.763015
0.78509
0.807997
0.831737
0.85631
0.881716
0.907955
0.935027
0.962932
0.99167
1.02124
1.05165
1.08288
1.11495
1.14786
1.18159
1.21616
1.25156
1.2878
1.32486
1.36277
1.4015
1.44107
1.48147
0.510204
0.510621
0.51187
0.513953
0.516868
0.520616
0.525198
0.530612
0.53686
0.54394
0.551853
0.5606
0.570179
0.580591
0.591837
0.603915
0.616826
0.630571
0.645148
0.660558
0.676801
0.693878
0.711787
0.730529
0.750104
0.770512
0.791753
0.813828
0.836735
0.860475
0.885048
0.910454
0.936693
0.963765
0.99167
1.02041
1.04998
1.08038
1.11162
1.14369
1.17659
1.21033
1.2449
1.2803
1.31653
1.3536
1.3915
1.43024
1.4698
1.5102
0.539775
0.540192
0.541441
0.543524
0.546439
0.550187
0.554769
0.560183
0.566431
0.573511
0.581424
0.590171
0.59975
0.610162
0.621408
0.633486
0.646397
0.660142
0.674719
0.690129
0.706372
0.723449
0.741358
0.7601
0.779675
0.800083
0.821324
0.843399
0.866306
0.890046
0.914619
0.940025
0.966264
0.993336
1.02124
1.04998
1.07955
1.10995
1.14119
1.17326
1.20616
1.2399
1.27447
1.30987
1.34611
1.38317
1.42107
1.45981
1.49938
1.53978
0.570179
0.570596
0.571845
0.573928
0.576843
0.580591
0.585173
0.590587
0.596835
0.603915
0.611828
0.620575
0.630154
0.640566
0.651812
0.66389
0.676801
0.690546
0.705123
0.720533
0.736776
0.753853
0.771762
0.790504
0.810079
0.830487
0.851728
0.873803
0.89671
0.92045
0.945023
0.970429
0.996668
1.02374
1.05165
1.08038
1.10995
1.14036
1.1716
1.20367
1.23657
1.2703
1.30487
1.34027
1.37651
1.41358
1.45148
1.49021
1.52978
1.57018
0.601416
0.601833
0.603082
0.605165
0.60808
0.611828
0.61641
0.621824
0.628072
0.635152
0.643065
0.651812
0.661391
0.671803
0.683049
0.695127
0.708038
0.721783
0.73636
0.75177
0.768013
0.78509
0.802999
0.821741
0.841316
0.861724
0.882965
0.90504
0.927947
0.951687
0.97626
1.00167
1.02791
1.05498
1.08288
1.11162
1.14119
1.1716
1.20283
1.2349
1.26781
1.30154
1.33611
1.37151
1.40775
1.44481
1.48272
1.52145
1.56102
1.60142
0.633486
0.633903
0.635152
0.637234
0.64015
0.643898
0.64848
0.653894
0.660142
0.667222
0.675135
0.683882
0.693461
0.703873
0.715119
0.727197
0.740108
0.753853
0.76843
0.78384
0.800083
0.81716
0.835069
0.853811
0.873386
0.893794
0.915035
0.93711
0.960017
0.983757
1.00833
1.03374
1.05998
1.08705
1.11495
1.14369
1.17326
1.20367
1.2349
1.26697
1.29988
1.33361
1.36818
1.40358
1.43982
1.47688
1.51479
1.55352
1.59309
1.63349
0.666389
0.666805
0.668055
0.670137
0.673053
0.676801
0.681383
0.686797
0.693045
0.700125
0.708038
0.716785
0.726364
0.736776
0.748022
0.7601
0.773011
0.786756
0.801333
0.816743
0.832986
0.850062
0.867972
0.886714
0.906289
0.926697
0.947938
0.970012
0.99292
1.01666
1.04123
1.06664
1.09288
1.11995
1.14786
1.17659
1.20616
1.23657
1.26781
1.29988
1.33278
1.36651
1.40108
1.43648
1.47272
1.50979
1.54769
1.58642
1.62599
1.66639
0.700125
0.700541
0.701791
0.703873
0.706789
0.710537
0.715119
0.720533
0.726781
0.733861
0.741774
0.750521
0.7601
0.770512
0.781758
0.793836
0.806747
0.820491
0.835069
0.850479
0.866722
0.883798
0.901708
0.92045
0.940025
0.960433
0.981674
1.00375
1.02666
1.0504
1.07497
1.10037
1.12661
1.15369
1.18159
1.21033
1.2399
1.2703
1.30154
1.33361
1.36651
1.40025
1.43482
1.47022
1.50646
1.54352
1.58142
1.62016
1.65973
1.70012
0.734694
0.73511
0.73636
0.738442
0.741358
0.745106
0.749688
0.755102
0.761349
0.76843
0.776343
0.78509
0.794669
0.805081
0.816327
0.828405
0.841316
0.85506
0.869638
0.885048
0.901291
0.918367
0.936277
0.955019
0.974594
0.995002
1.01624
1.03832
1.06122
1.08496
1.10954
1.13494
1.16118
1.18825
1.21616
1.2449
1.27447
1.30487
1.33611
1.36818
1.40108
1.43482
1.46939
1.50479
1.54102
1.57809
1.61599
1.65473
1.69429
1.73469
0.770096
0.770512
0.771762
0.773844
0.77676
0.780508
0.78509
0.790504
0.796751
0.803832
0.811745
0.820491
0.830071
0.840483
0.851728
0.863807
0.876718
0.890462
0.90504
0.92045
0.936693
0.953769
0.971678
0.990421
1.01
1.0304
1.05165
1.07372
1.09663
1.12037
1.14494
1.17035
1.19658
1.22366
1.25156
1.2803
1.30987
1.34027
1.37151
1.40358
1.43648
1.47022
1.50479
1.54019
1.57643
1.61349
1.6514
1.69013
1.7297
1.7701
0.806331
0.806747
0.807997
0.810079
0.812995
0.816743
0.821324
0.826739
0.832986
0.840067
0.84798
0.856726
0.866306
0.876718
0.887963
0.900042
0.912953
0.926697
0.941274
0.956685
0.972928
0.990004
1.00791
1.02666
1.04623
1.06664
1.08788
1.10995
1.13286
1.1566
1.18117
1.20658
1.23282
1.25989
1.2878
1.31653
1.34611
1.37651
1.40775
1.43982
1.47272
1.50646
1.54102
1.57643
1.61266
1.64973
1.68763
1.72636
1.76593
1.80633
0.843399
0.843815
0.845065
0.847147
0.850062
0.853811
0.858392
0.863807
0.870054
0.877135
0.885048
0.893794
0.903374
0.913786
0.925031
0.93711
0.950021
0.963765
0.978342
0.993753
1.01
1.02707
1.04498
1.06372
1.0833
1.10371
1.12495
1.14702
1.16993
1.19367
1.21824
1.24365
1.26989
1.29696
1.32486
1.3536
1.38317
1.41358
1.44481
1.47688
1.50979
1.54352
1.57809
1.61349
1.64973
1.6868
1.7247
1.76343
1.803
1.8434
0.881299
0.881716
0.882965
0.885048
0.887963
0.891712
0.896293
0.901708
0.907955
0.915035
0.922949
0.931695
0.941274
0.951687
0.962932
0.97501
0.987922
1.00167
1.01624
1.03165
1.0479
1.06497
1.08288
1.10162
1.1212
1.14161
1.16285
1.18492
1.20783
1.23157
1.25614
1.28155
1.30779
1.33486
1.36277
1.3915
1.42107
1.45148
1.48272
1.51479
1.54769
1.58142
1.61599
1.6514
1.68763
1.7247
1.7626
1.80133
1.8409
1.8813
0.920033
0.92045
0.921699
0.923782
0.926697
0.930446
0.935027
0.940441
0.946689
0.953769
0.961683
0.970429
0.980008
0.990421
1.00167
1.01374
1.02666
1.0404
1.05498
1.07039
1.08663
1.10371
1.12162
1.14036
1.15993
1.18034
1.20158
1.22366
1.24656
1.2703
1.29488
1.32028
1.34652
1.37359
1.4015
1.43024
1.45981
1.49021
1.52145
1.55352
1.58642
1.62016
1.65473
1.69013
1.72636
1.76343
1.80133
1.84007
1.87963
1.92003
0.9596
0.960017
0.961266
0.963349
0.966264
0.970012
0.974594
0.980008
0.986256
0.993336
1.00125
1.01
1.01958
1.02999
1.04123
1.05331
1.06622
1.07997
1.09454
1.10995
1.1262
1.14327
1.16118
1.17993
1.1995
1.21991
1.24115
1.26322
1.28613
1.30987
1.33444
1.35985
1.38609
1.41316
1.44107
1.4698
1.49938
1.52978
1.56102
1.59309
1.62599
1.65973
1.69429
1.7297
1.76593
1.803
1.8409
1.87963
1.9192
1.9596
1
1.00042
1.00167
1.00375
1.00666
1.01041
1.01499
1.02041
1.02666
1.03374
1.04165
1.0504
1.05998
1.07039
1.08163
1.09371
1.10662
1.12037
1.13494
1.15035
1.1666
1.18367
1.20158
1.22032
1.2399
1.26031
1.28155
1.30362
1.32653
1.35027
1.37484
1.40025
1.42649
1.45356
1.48147
1.5102
1.53978
1.57018
1.60142
1.63349
1.66639
1.70012
1.73469
1.7701
1.80633
1.8434
1.8813
1.92003
1.9596
2
0.000416493
0.000832986
0.00208247
0.00416493
0.00708038
0.0108288
0.0154102
0.0208247
0.0270721
0.0341524
0.0420658
0.0508122
0.0603915
0.0708038
0.0820491
0.0941274
0.107039
0.120783
0.13536
0.150771
0.167014
0.18409
0.201999
0.220741
0.240317
0.260725
0.281966
0.30404
0.326947
0.350687
0.37526
0.400666
0.426905
0.453978
0.481883
0.510621
0.540192
0.570596
0.601833
0.633903
0.666805
0.700541
0.73511
0.770512
0.806747
0.843815
0.881716
0.92045
0.960017
1.00042
0.000832986
-0
-0
-0
-0
-0
-0
-0
-0
-0
-0
-0
-0
-0
-0
-0
-0
-0
-0
-0
-0
-0
-0
-0
-0
-0
-0
-0
-0
-0
-0
-0
-0
-0
-0
-0
-0
-0
-0
-0
-0
-0
-0
-0
-0
-0
-0
-0
-0
1.00083
0.00208247
-0
-0
-0
-0
-0
-0
-0
-0
-0
-0
-0
-0
-0
-0
-0
-0
-0
-0
-0
-0
-0
-0
-0
-0
-0
-0
-0
-0
-0
-0
-0
-0
-0
-0
-0
-0
-0
-0
-0
-0
-0
-0
-0
-0
-0
-0
-0
-0
1.00208
0.00416493
-0
-0
-0
-0
-0
-0
-0
-0
-0
-0
-0
-0
-0
-0
-0
-0
-0
-0
-0
-0
-0
-0
-0
-0
-0
-0
-0
-0
-0
-0
-0
-0
-0
-0
-0
-0
-0
-0
-0
-0
-0
-0
-0
-0
-0
-0
-0
-0
1.00416
0.00708038
-0
-0
-0
-0
-0
-0
-0
-0
-0
-0
-0
-0
-0
-0
-0
-0
-0
-0
-0
-0
-0
-0
-0
-0
-0
-0
-0
-0
-0
-0
-0
-0
-0
-0
-0
-0
-0
-0
-0
-0
-0
-0
-0
-0
-0
-0
-0
-0
1.00708
0.0108288
-0
-0
-0
-0
-0
-0
-0
-0
-0
-0
-0
-0
-0
-0
-0
-0
-0
-0
-0
-0
-0
-0
-0
-0
-0
-0
-0
-0
-0
-0
-0
-0
-0
-0
-0
-0
-0
-0
-0
-0
-0
-0
-0
-0
-0
-0
-0
-0
1.01083
0.0154102
-0
-0
-0
-0
-0
-0
-0
-0
-0
-0
-0
-0
-0
-0
-0
-0
-0
-0
-0
-0
-0
-0
-0
-0
-0
-0
-0
-0
-0
-0
-0
-0
-0
-0
-0
-0
-0
-0
-0
-0
-0
-0
-0
-0
-0
-0
-0
-0
1.01541
0.0208247
-0
-0
-0
-0
-0
-0
-0
-0
-0
-0
-0
-0
-0
-0
-0
-0
-0
-0
-0
-0
-0
-0
-0
-0
-0
-0
-0
-0
-0
-0
-0
-0
-0
-0
-0
-0
-0
-0
-0
-0
-0
-0
-0
-0
-0
-0
-0
-0
1.02082
0.0270721
-0
-0
-0
-0
-0
-0
-0
-0
-0
-0
-0
-0
-0
-0
-0
-0
-0
-0
-0
-0
-0
-0
-0
-0
-0
-0
-0
-0
-0
-0
-0
-0
-0
-0
-0
-0
-0
-0
-0
-0
-0
-0
-0
-0
-0
-0
-0
-0
1.02707
0.0341524
-0
-0
-0
-0
-0
-0
-0
-0
-0
-0
-0
-0
-0
-0
-0
-0
-0
-0
-0
-0
-0
-0
-0
-0
-0
-0
-0
-0
-0
-0
-0
-0
-0
-0
-0
-0
-0
-0
-0
-0
-0
-0
-0
-0
-0
-0
-0
-0
1.03415
0.0420658
-0
-0
-0
-0
-0
-0
-0
-0
-0
-0
-0
-0
-0
-0
-0
-0
-0
-0
-0
-0
-0
-0
-0
-0
-0
-0
-0
-0
-0
-0
-0
-0
-0
-0
-0
-0
-0
-0
-0
-0
-0
-0
-0
-0
-0
-0
-0
-0
1.04207
0.0508122
-0
-0
-0
-0
-0
-0
-0
-0
-0
-0
-0
-0
-0
-0
-0
-0
-0
-0
-0
-0
-0
-0
-0
-0
-0
-0
-0
-0
-0
-0
-0
-0
-0
-0
-0
-0
-0
-0
-0
-0
-0
-0
-0
-0
-0
-0
-0
-0
1.05081
0.0603915
-0
-0
-0
-0
-0
-0
-0
-0
-0
-0
-0
-0
-0
-0
-0
-0
-0
-0
-0
-0
-0
-0
-0
-0
-0
-0
-0
-0
-0
-0
-0
-0
-0
-0
-0
-0
-0
-0
-0
-0
-0
-0
-0
-0
-0
-0
-0
-0
1.06039
0.0708038
-0
-0
-0
-0
-0
-0
-0
-0
-0
-0
-0
-0
-0
-0
-0
-0
-0
-0
-0
-0
-0
-0
-0
-0
-0
-0
-0
-0
-0
-0
-0
-0
-0
-0
-0
-0
-0
-0
-0
-0
-0
-0
-0
-0
-0
-0
-0
-0
1.0708
0.0820491
-0
-0
-0
-0
-0
-0
-0
-0
-0
-0
-0
-0
-0
-0
-0
-0
-0
-0
-0
-0
-0
-0
-0
-0
-0
-0
-0
-0
-0
-0
-0
-0
-0
-0
-0
-0
-0
-0
-0
-0
-0
-0
-0
-0
-0
-0
-0
-0
1.08205
0.0941274
-0
-0
-0
-0
-0
-0
-0
-0
-0
-0
-0
-0
-0
-0
-0
-0
-0
-0
-0
-0
-0
-0
-0
-0
-0
-0
-0
-0
-0
-0
-0
-0
-0
-0
-0
-0
-0
-0
-0
-0
-0
-0
-0
-0
-0
-0
-0
-0
1.09413
0.107039
-0
-0
-0
-0
-0
-0
-0
-0
-0
-0
-0
-0
-0
-0
-0
-0
-0
-0
-0
-0
-0
-0
-0
-0
-0
-0
-0
-0
-0
-0
-0
-0
-0
-0
-0
-0
-0
-0
-0
-0
-0
-0
-0
-0
-0
-0
-0
-0
1.10704
0.120783
-0
-0
-0
-0
-0
-0
-0
-0
-0
-0
-0
-0
-0
-0
-0
-0
-0
-0
-0
-0
-0
-0
-0
-0
-0
-0
-0
-0
-0
-0
-0
-0
-0
-0
-0
-0
-0
-0
-0
-0
-0
-0
-0
-0
-0
-0
-0
-0
1.12078
0.13536
-0
-0
-0
-0
-0
-0
-0
-0
-0
-0
-0
-0
-0
-0
-0
-0
-0
-0
-0
-0
-0
-0
-0
-0
-0
-0
-0
-0
-0
-0
-0
-0
-0
-0
-0
-0
-0
-0
-0
-0
-0
-0
-0
-0
-0
-0
-0
-0
1.13536
0.150771
-0
-0
-0
-0
-0
-0
-0
-0
-0
-0
-0
-0
-0
-0
-0
-0
-0
-0
-0
-0
-0
-0
-0
-0
-0
-0
-0
-0
-0
-0
-0
-0
-0
-0
-0
-0
-0
-0
-0
-0
-0
-0
-0
-0
-0
-0
-0
-0
1.15077
0.167014
-0
-0
-0
-0
-0
-0
-0
-0
-0
-0
-0
-0
-0
-0
-0
-0
-0
-0
-0
-0
-0
-0
-0
-0
-0
-0
-0
-0
-0
-0
-0
-0
-0
-0
-0
-0
-0
-0
-0
-0
-0
-0
-0
-0
-0
-0
-0
-0
1.16701
0.18409
-0
-0
-0
-0
-0
-0
-0
-0
-0
-0
-0
-0
-0
-0
-0
-0
-0
-0
-0
-0
-0
-0
-0
-0
-0
-0
-0
-0
-0
-0
-0
-0
-0
-0
-0
-0
-0
-0
-0
-0
-0
-0
-0
-0
-0
-0
-0
-0
1.18409
0.201999
-0
-0
-0
-0
-0
-0
-0
-0
-0
-0
-0
-0
-0
-0
-0
-0
-0
-0
-0
-0
-0
-0
-0
-0
-0
-0
-0
-0
-0
-0
-0
-0
-0
-0
-0
-0
-0
-0
-0
-0
-0
-0
-0
-0
-0
-0
-0
-0
1.202
0.220741
-0
-0
-0
-0
-0
-0
-0
-0
-0
-0
-0
-0
-0
-0
-0
-0
-0
-0
-0
-0
-0
-0
-0
-0
-0
-0
-0
-0
-0
-0
-0
-0
-0
-0
-0
-0
-0
-0
-0
-0
-0
-0
-0
-0
-0
-0
-0
-0
1.22074
0.240317
-0
-0
-0
-0
-0
-0
-0
-0
-0
-0
-0
-0
-0
-0
-0
-0
-0
-0
-0
-0
-0
-0
-0
-0
-0
-0
-0
-0
-0
-0
-0
-0
-0
-0
-0
-0
-0
-0
-0
-0
-0
-0
-0
-0
-0
-0
-0
-0
1.24032
0.260725
-0
-0
-0
-0
-0
-0
-0
-0
-0
-0
-0
-0
-0
-0
-0
-0
-0
-0
-0
-0
-0
-0
-0
-0
-0
-0
-0
-0
-0
-0
-0
-0
-0
-0
-0
-0
-0
-0
-0
-0
-0
-0
-0
-0
-0
-0
-0
-0
1.26072
0.281966
-0
-0
-0
-0
-0
-0
-0
-0
-0
-0
-0
-0
-0
-0
-0
-0
-0
-0
-0
-0
-0
-0
-0
-0
-0
-0
-0
-0
-0
-0
-0
-0
-0
-0
-0
-0
-0
-0
-0
-0
-0
-0
-0
-0
-0
-0
-0
-0
1.28197
0.30404
-0
-0
-0
-0
-0
-0
-0
-0
-0
-0
-0
-0
-0
-0
-0
-0
-0
-0
-0
-0
-0
-0
-0
-0
-0
-0
-0
-0
-0
-0
-0
-0
-0
-0
-0
-0
-0
-0
-0
-0
-0
-0
-0
-0
-0
-0
-0
-0
1.30404
0.326947
-0
-0
-0
-0
-0
-0
-0
-0
-0
-0
-0
-0
-0
-0
-0
-0
-0
-0
-0
-0
-0
-0
-0
-0
-0
-0
-0
-0
-0
-0
-0
-0
-0
-0
-0
-0
-0
-0
-0
-0
-0
-0
-0
-0
-0
-0
-0
-0
1.32695
0.350687
-0
-0
-0
-0
-0
-0
-0
-0
-0
-0
-0
-0
-0
-0
-0
-0
-0
-0
-0
-0
-0
-0
-0
-0
-0
-0
-0
-0
-0
-0
-0
-0
-0
-0
-0
-0
-0
-0
-0
-0
-0
-0
-0
-0
-0
-0
-0
-0
1.35069
0.37526
-0
-0
-0
-0
-0
-0
-0
-0
-0
-0
-0
-0
-0
-0
-0
-0
-0
-0
-0
-0
-0
-0
-0
-0
-0
-0
-0
-0
-0
-0
-0
-0
-0
-0
-0
-0
-0
-0
-0
-0
-0
-0
-0
-0
-0
-0
-0
-0
1.37526
0.400666
-0
-0
-0
-0
-0
-0
-0
-0
-0
-0
-0
-0
-0
-0
-0
-0
-0
-0
-0
-0
-0
-0
-0
-0
-0
-0
-0
-0
-0
-0
-0
-0
-0
-0
-0
-0
-0
-0
-0
-0
-0
-0
-0
-0
-0
-0
-0
-0
1.40067
0.426905
-0
-0
-0
-0
-0
-0
-0
-0
-0
-0
-0
-0
-0
-0
-0
-0
-0
-0
-0
-0
-0
-0
-0
-0
-0
-0
-0
-0
-0
-0
-0
-0
-0
-0
-0
-0
-0
-0
-0
-0
-0
-0
-0
-0
-0
-0
-0
-0
1.42691
0.453978
-0
-0
-0
-0
-0
-0
-0
-0
-0
-0
-0
-0
-0
-0
-0
-0
-0
-0
-0
-0
-0
-0
-0
-0
-0
-0
-0
-0
-0
-0
-0
-0
-0
-0
-0
-0
-0
-0
-0
-0
-0
-0
-0
-0
-0
-0
-0
-0
1.45398
0.481883
-0
-0
-0
-0
-0
-0
-0
-0
-0
-0
-0
-0
-0
-0
-0
-0
-0
-0
-0
-0
-0
-0
-0
-0
-0
-0
-0
-0
-0
-0
-0
-0
-0
-0
-0
-0
-0
-0
-0
-0
-0
-0
-0
-0
-0
-0
-0
-0
1.48188
0.510621
-0
-0
-0
-0
-0
-0
-0
-0
-0
-0
-0
-0
-0
-0
-0
-0
-0
-0
-0
-0
-0
-0
-0
-0
-0
-0
-0
-0
-0
-0
-0
-0
-0
-0
-0
-0
-0
-0
-0
-0
-0
-0
-0
-0
-0
-0
-0
-0
1.51062
0.540192
-0
-0
-0
-0
-0
-0
-0
-0
-0
-0
-0
-0
-0
-0
-0
-0
-0
-0
-0
-0
-0
-0
-0
-0
-0
-0
-0
-0
-0
-0
-0
-0
-0
-0
-0
-0
-0
-0
-0
-0
-0
-0
-0
-0
-0
-0
-0
-0
1.54019
0.570596
-0
-0
-0
-0
-0
-0
-0
-0
-0
-0
-0
-0
-0
-0
-0
-0
-0
-0
-0
-0
-0
-0
-0
-0
-0
-0
-0
-0
-0
-0
-0
-0
-0
-0
-0
-0
-0
-0
-0
-0
-0
-0
-0
-0
-0
-0
-0
-0
1.5706
0.601833
-0
-0
-0
-0
-0
-0
-0
-0
-0
-0
-0
-0
-0
-0
-0
-0
-0
-0
-0
-0
-0
-0
-0
-0
-0
-0
-0
-0
-0
-0
-0
-0
-0
-0
-0
-0
-0
-0
-0
-0
-0
-0
-0
-0
-0
-0
-0
-0
1.60183
0.633903
-0
-0
-0
-0
-0
-0
-0
-0
-0
-0
-0
-0
-0
-0
-0
-0
-0
-0
-0
-0
-0
-0
-0
-0
-0
-0
-0
-0
-0
-0
-0
-0
-0
-0
-0
-0
-0
-0
-0
-0
-0
-0
-0
-0
-0
-0
-0
-0
1.6339
0.666805
-0
-0
-0
-0
-0
-0
-0
-0
-0
-0
-0
-0
-0
-0
-0
-0
-0
-0
-0
-0
-0
-0
-0
-0
-0
-0
-0
-0
-0
-0
-0
-0
-0
-0
-0
-0
-0
-0
-0
-0
-0
-0
-0
-0
-0
-0
-0
-0
1.66681
0.700541
-0
-0
-0
-0
-0
-0
-0
-0
-0
-0
-0
-0
-0
-0
-0
-0
-0
-0
-0
-0
-0
-0
-0
-0
-0
-0
-0
-0
-0
-0
-0
-0
-0
-0
-0
-0
-0
-0
-0
-0
-0
-0
-0
-0
-0
-0
-0
-0
1.70054
0.73511
-0
-0
-0
-0
-0
-0
-0
-0
-0
-0
-0
-0
-0
-0
-0
-0
-0
-0
-0
-0
-0
-0
-0
-0
-0
-0
-0
-0
-0
-0
-0
-0
-0
-0
-0
-0
-0
-0
-0
-0
-0
-0
-0
-0
-0
-0
-0
-0
1.73511
0.770512
-0
-0
-0
-0
-0
-0
-0
-0
-0
-0
-0
-0
-0
-0
-0
-0
-0
-0
-0
-0
-0
-0
-0
-0
-0
-0
-0
-0
-0
-0
-0
-0
-0
-0
-0
-0
-0
-0
-0
-0
-0
-0
-0
-0
-0
-0
-0
-0
1.77051
0.806747
-0
-0
-0
-0
-0
-0
-0
-0
-0
-0
-0
-0
-0
-0
-0
-0
-0
-0
-0
-0
-0
-0
-0
-0
-0
-0
-0
-0
-0
-0
-0
-0
-0
-0
-0
-0
-0
-0
-0
-0
-0
-0
-0
-0
-0
-0
-0
-0
1.80675
0.843815
-0
-0
-0
-0
-0
-0
-0
-0
-0
-0
-0
-0
-0
-0
-0
-0
-0
-0
-0
-0
-0
-0
-0
-0
-0
-0
-0
-0
-0
-0
-0
-0
-0
-0
-0
-0
-0
-0
-0
-0
-0
-0
-0
-0
-0
-0
-0
-0
1.84382
0.881716
-0
-0
-0
-0
-0
-0
-0
-0
-0
-0
-0
-0
-0
-0
-0
-0
-0
-0
-0
-0
-0
-0
-0
-0
-0
-0
-0
-0
-0
-0
-0
-0
-0
-0
-0
-0
-0
-0
-0
-0
-0
-0
-0
-0
-0
-0
-0
-0
1.88172
0.92045
-0
-0
-0
-0
-0
-0
-0
-0
-0
-0
-0
-0
-0
-0
-0
-0
-0
-0
-0
-0
-0
-0
-0
-0
-0